
#(C) 2019 by FIZ Karlsruhe - Leibniz Institute for Information Infrastructure, and the U.S. Secretary of
#Commerce on behalf of the United States.  All rights reserved.
data_613171-ICSD
_database_code_ICSD 613171
_audit_creation_date 2010-02-01
_audit_update_record 2019-02-01
_chemical_name_systematic 'Cobalt molybdenum boride (0.4/3.6/4)'
_chemical_formula_structural '(Co0.4 Mo3.6) B4'
_chemical_formula_sum 'B4 Co0.4 Mo3.6'
_chemical_name_structure_type CrB
_exptl_crystal_density_diffrn 8.39
_publ_section_title 'Untersuchungen in den Dreistoffen: Mo, W - Fe, Co, Ni - B'
_publ_section_comment 'Cell and Type only determined'
loop_
_citation_id
_citation_journal_full
_citation_year
_citation_journal_volume
_citation_page_first
_citation_page_last
_citation_journal_id_ASTM
primary 'Monatshefte fuer Chemie' 1966 97 1459 1468 MOCMB7
loop_
_publ_author_name
'Haschke, H.'
'Nowotny, H.'
'Benesovsky, F.'
_cell_length_a 3.16
_cell_length_b 8.424
_cell_length_c 3.064
_cell_angle_alpha 90.
_cell_angle_beta 90.
_cell_angle_gamma 90.
_cell_volume 81.56
_cell_formula_units_Z 1
_symmetry_space_group_name_H-M 'C m c m'
_symmetry_Int_Tables_number 63
loop_
_symmetry_equiv_pos_site_id
_symmetry_equiv_pos_as_xyz
1 '-x, y, -z+1/2'
2 '-x, -y, z+1/2'
3 '-x, y, z'
4 '-x, -y, -z'
5 'x, -y, z+1/2'
6 'x, y, -z+1/2'
7 'x, -y, -z'
8 'x, y, z'
9 '-x+1/2, y+1/2, -z+1/2'
10 '-x+1/2, -y+1/2, z+1/2'
11 '-x+1/2, y+1/2, z'
12 '-x+1/2, -y+1/2, -z'
13 'x+1/2, -y+1/2, z+1/2'
14 'x+1/2, y+1/2, -z+1/2'
15 'x+1/2, -y+1/2, -z'
16 'x+1/2, y+1/2, z'
loop_
_atom_type_symbol
_atom_type_oxidation_number
Co0+ 0
Mo0+ 0
B0+ 0
loop_
_atom_site_label
_atom_site_type_symbol
_atom_site_symmetry_multiplicity
_atom_site_Wyckoff_symbol
_atom_site_fract_x
_atom_site_fract_y
_atom_site_fract_z
_atom_site_B_iso_or_equiv
_atom_site_occupancy
_atom_site_attached_hydrogens
Co1 Co0+ 4 c 0 0.145 0.25 . .1 0
Mo1 Mo0+ 4 c 0 0.145 0.25 . .9 0
B1 B0+ 4 c 0 0.435 0.25 . 1. 0
#End of TTdata_613171-ICSD