
#(C) 2019 by FIZ Karlsruhe - Leibniz Institute for Information Infrastructure.  All rights reserved.
data_44175-ICSD
_database_code_ICSD 44175
_audit_creation_date 2000-07-15
_chemical_name_systematic 'Cobalt molybdenum boride (2/1/4)'
_chemical_formula_structural 'Co2 Mo B4'
_chemical_formula_sum 'B4 Co2 Mo1'
_chemical_name_structure_type Cr3B4
_exptl_crystal_density_diffrn 7.31
_publ_section_title 'Molybdenum-cobalt-boron system'
loop_
_citation_id
_citation_journal_full
_citation_year
_citation_journal_volume
_citation_page_first
_citation_page_last
_citation_journal_id_ASTM
primary 'Izvestiya Akademii Nauk SSSR, Neorganicheskie Materialy' 1966 2 1709
1712 IVNMAW
loop_
_publ_author_name
'Kuz'ma, Yu.B. (Kuzma, Yu.B.)'
'Nych, O.V.'
'Skolozdra, R.V.'
_cell_length_a 3.079(5)
_cell_length_b 12.57(1)
_cell_length_c 3.018(5)
_cell_angle_alpha 90.
_cell_angle_beta 90.
_cell_angle_gamma 90.
_cell_volume 116.81
_cell_formula_units_Z 2
_symmetry_space_group_name_H-M 'I m m m'
_symmetry_Int_Tables_number 71
loop_
_symmetry_equiv_pos_site_id
_symmetry_equiv_pos_as_xyz
1 'x, y, -z'
2 'x, -y, z'
3 '-x, y, z'
4 '-x, -y, -z'
5 '-x, -y, z'
6 '-x, y, -z'
7 'x, -y, -z'
8 'x, y, z'
9 'x+1/2, y+1/2, -z+1/2'
10 'x+1/2, -y+1/2, z+1/2'
11 '-x+1/2, y+1/2, z+1/2'
12 '-x+1/2, -y+1/2, -z+1/2'
13 '-x+1/2, -y+1/2, z+1/2'
14 '-x+1/2, y+1/2, -z+1/2'
15 'x+1/2, -y+1/2, -z+1/2'
16 'x+1/2, y+1/2, z+1/2'
loop_
_atom_type_symbol
_atom_type_oxidation_number
Co3+ 3
Mo6+ 6
B3- -3
loop_
_atom_site_label
_atom_site_type_symbol
_atom_site_symmetry_multiplicity
_atom_site_Wyckoff_symbol
_atom_site_fract_x
_atom_site_fract_y
_atom_site_fract_z
_atom_site_B_iso_or_equiv
_atom_site_occupancy
_atom_site_attached_hydrogens
Co1 Co3+ 4 g 0 0.18 0 . 1. 0
Mo1 Mo6+ 2 c 0.5 0.5 0 . 1. 0
B1 B3- 4 g 0 0.375 0 . 1. 0
B2 B3- 4 h 0 0.444 0.5 . 1. 0
#End of TTdata_44175-ICSD