
#(C) 2019 by FIZ Karlsruhe - Leibniz Institute for Information Infrastructure.  All rights reserved.
data_16776-ICSD
_database_code_ICSD 16776
_audit_creation_date 1980-01-01
_audit_update_record 2019-02-01
_chemical_name_systematic 'Cobalt ditungsten(II) boride'
_chemical_formula_structural 'Co W2 B2'
_chemical_formula_sum 'B2 Co1 W2'
_chemical_name_structure_type CoW2B2
_exptl_crystal_density_diffrn 14.51
_publ_section_title 'Die Kristallstruktur von W2CoB2 und isotypen Phasen'
loop_
_citation_id
_citation_journal_full
_citation_year
_citation_journal_volume
_citation_page_first
_citation_page_last
_citation_journal_id_ASTM
primary 'Monatshefte fuer Chemie' 1966 97 378 382 MOCMB7
loop_
_publ_author_name
'Rieger, W.'
'Nowotny, H.'
'Benesovsky, F.'
_cell_length_a 7.075(5)
_cell_length_b 4.564(2)
_cell_length_c 3.177(5)
_cell_angle_alpha 90.
_cell_angle_beta 90.
_cell_angle_gamma 90.
_cell_volume 102.59
_cell_formula_units_Z 2
_symmetry_space_group_name_H-M 'I m m m'
_symmetry_Int_Tables_number 71
loop_
_symmetry_equiv_pos_site_id
_symmetry_equiv_pos_as_xyz
1 'x, y, -z'
2 'x, -y, z'
3 '-x, y, z'
4 '-x, -y, -z'
5 '-x, -y, z'
6 '-x, y, -z'
7 'x, -y, -z'
8 'x, y, z'
9 'x+1/2, y+1/2, -z+1/2'
10 'x+1/2, -y+1/2, z+1/2'
11 '-x+1/2, y+1/2, z+1/2'
12 '-x+1/2, -y+1/2, -z+1/2'
13 '-x+1/2, -y+1/2, z+1/2'
14 '-x+1/2, y+1/2, -z+1/2'
15 'x+1/2, -y+1/2, -z+1/2'
16 'x+1/2, y+1/2, z+1/2'
loop_
_atom_type_symbol
_atom_type_oxidation_number
W2+ 2
Co2+ 2
B3- -3
loop_
_atom_site_label
_atom_site_type_symbol
_atom_site_symmetry_multiplicity
_atom_site_Wyckoff_symbol
_atom_site_fract_x
_atom_site_fract_y
_atom_site_fract_z
_atom_site_B_iso_or_equiv
_atom_site_occupancy
_atom_site_attached_hydrogens
W1 W2+ 4 f 0.205 0.5 0 . 1. 0
Co1 Co2+ 2 a 0 0 0 . 1. 0
B1 B3- 4 h 0 0.3 0.5 . 1. 0
#End of TTdata_16776-ICSD